 -0.12000000000000000          0.0000000000000000     
 -0.11956699999999999          0.0000000000000000     
 -0.11913399999999999          0.0000000000000000     
 -0.11870100000000000          0.0000000000000000     
 -0.11826800000000000          0.0000000000000000     
 -0.11783500000000000          0.0000000000000000     
 -0.11740199999999999          0.0000000000000000     
 -0.11696899999999999          0.0000000000000000     
 -0.11653600000000000          0.0000000000000000     
 -0.11610300000000000          0.0000000000000000     
 -0.11567000000000000          0.0000000000000000     
 -0.11523699999999999          0.0000000000000000     
 -0.11480399999999999          0.0000000000000000     
 -0.11437100000000000          0.0000000000000000     
 -0.11393800000000000          0.0000000000000000     
 -0.11350499999999999          0.0000000000000000     
 -0.11307199999999999          0.0000000000000000     
 -0.11263899999999999          0.0000000000000000     
 -0.11220600000000000          0.0000000000000000     
 -0.11177300000000000          0.0000000000000000     
 -0.11133999999999999          0.0000000000000000     
 -0.11090699999999999          0.0000000000000000     
 -0.11047399999999999          0.0000000000000000     
 -0.11004100000000000          0.0000000000000000     
 -0.10960800000000000          0.0000000000000000     
 -0.10917499999999999          0.0000000000000000     
 -0.10874199999999999          0.0000000000000000     
 -0.10830899999999999          0.0000000000000000     
 -0.10787600000000000          0.0000000000000000     
 -0.10744300000000000          0.0000000000000000     
 -0.10700999999999999          0.0000000000000000     
 -0.10657699999999999          0.0000000000000000     
 -0.10614399999999999          0.0000000000000000     
 -0.10571100000000000          0.0000000000000000     
 -0.10527800000000000          0.0000000000000000     
 -0.10484499999999999          0.0000000000000000     
 -0.10441199999999999          0.0000000000000000     
 -0.10397899999999999          0.0000000000000000     
 -0.10354600000000000          0.0000000000000000     
 -0.10311300000000000          0.0000000000000000     
 -0.10267999999999999          0.0000000000000000     
 -0.10224699999999999          0.0000000000000000     
 -0.10181399999999999          0.0000000000000000     
 -0.10138100000000000          0.0000000000000000     
 -0.10094800000000000          0.0000000000000000     
 -0.10051499999999999          0.0000000000000000     
 -0.10008199999999999          0.0000000000000000     
  -9.9648999999999988E-002     0.0000000000000000     
  -9.9215999999999999E-002     0.0000000000000000     
  -9.8782999999999996E-002     0.0000000000000000     
  -9.8349999999999993E-002     0.0000000000000000     
  -9.7916999999999990E-002     0.0000000000000000     
  -9.7483999999999987E-002     0.0000000000000000     
  -9.7050999999999998E-002     0.0000000000000000     
  -9.6617999999999996E-002     0.0000000000000000     
  -9.6184999999999993E-002     0.0000000000000000     
  -9.5752000000000004E-002     0.0000000000000000     
  -9.5318999999999987E-002     0.0000000000000000     
  -9.4885999999999998E-002     0.0000000000000000     
  -9.4452999999999995E-002     0.0000000000000000     
  -9.4019999999999992E-002     0.0000000000000000     
  -9.3587000000000004E-002     0.0000000000000000     
  -9.3153999999999987E-002     0.0000000000000000     
  -9.2720999999999998E-002     0.0000000000000000     
  -9.2287999999999995E-002     0.0000000000000000     
  -9.1854999999999992E-002     0.0000000000000000     
  -9.1422000000000003E-002     0.0000000000000000     
  -9.0988999999999987E-002     0.0000000000000000     
  -9.0555999999999998E-002     0.0000000000000000     
  -9.0122999999999995E-002     0.0000000000000000     
  -8.9689999999999992E-002     0.0000000000000000     
  -8.9257000000000003E-002     0.0000000000000000     
  -8.8823999999999986E-002     0.0000000000000000     
  -8.8390999999999997E-002     0.0000000000000000     
  -8.7957999999999995E-002     0.0000000000000000     
  -8.7524999999999992E-002     0.0000000000000000     
  -8.7092000000000003E-002     0.0000000000000000     
  -8.6658999999999986E-002     0.0000000000000000     
  -8.6225999999999997E-002     0.0000000000000000     
  -8.5792999999999994E-002     0.0000000000000000     
  -8.5359999999999991E-002     0.0000000000000000     
  -8.4927000000000002E-002     0.0000000000000000     
  -8.4493999999999986E-002     0.0000000000000000     
  -8.4060999999999997E-002     0.0000000000000000     
  -8.3627999999999994E-002     0.0000000000000000     
  -8.3194999999999991E-002     0.0000000000000000     
  -8.2762000000000002E-002     0.0000000000000000     
  -8.2328999999999986E-002     0.0000000000000000     
  -8.1895999999999997E-002     0.0000000000000000     
  -8.1462999999999994E-002     0.0000000000000000     
  -8.1029999999999991E-002     0.0000000000000000     
  -8.0597000000000002E-002     0.0000000000000000     
  -8.0163999999999985E-002     0.0000000000000000     
  -7.9730999999999996E-002     0.0000000000000000     
  -7.9297999999999993E-002     0.0000000000000000     
  -7.8864999999999991E-002     0.0000000000000000     
  -7.8432000000000002E-002     0.0000000000000000     
  -7.7998999999999985E-002     0.0000000000000000     
  -7.7565999999999996E-002     0.0000000000000000     
  -7.7132999999999993E-002     0.0000000000000000     
  -7.6699999999999990E-002     0.0000000000000000     
  -7.6267000000000001E-002     0.0000000000000000     
  -7.5833999999999985E-002     0.0000000000000000     
  -7.5400999999999996E-002     0.0000000000000000     
  -7.4967999999999993E-002     0.0000000000000000     
  -7.4534999999999990E-002     0.0000000000000000     
  -7.4102000000000001E-002     0.0000000000000000     
  -7.3668999999999984E-002     0.0000000000000000     
  -7.3235999999999996E-002     0.0000000000000000     
  -7.2802999999999993E-002     0.0000000000000000     
  -7.2369999999999990E-002     0.0000000000000000     
  -7.1937000000000001E-002     0.0000000000000000     
  -7.1503999999999998E-002     0.0000000000000000     
  -7.1070999999999995E-002     0.0000000000000000     
  -7.0637999999999992E-002     0.0000000000000000     
  -7.0204999999999990E-002     0.0000000000000000     
  -6.9772000000000001E-002     0.0000000000000000     
  -6.9338999999999998E-002     0.0000000000000000     
  -6.8905999999999995E-002     0.0000000000000000     
  -6.8472999999999992E-002     0.0000000000000000     
  -6.8039999999999989E-002     0.0000000000000000     
  -6.7607000000000000E-002     0.0000000000000000     
  -6.7173999999999998E-002     0.0000000000000000     
  -6.6740999999999995E-002     0.0000000000000000     
  -6.6307999999999992E-002     0.0000000000000000     
  -6.5874999999999989E-002     0.0000000000000000     
  -6.5442000000000000E-002     0.0000000000000000     
  -6.5008999999999997E-002     0.0000000000000000     
  -6.4575999999999995E-002     0.0000000000000000     
  -6.4142999999999992E-002     0.0000000000000000     
  -6.3709999999999989E-002     0.0000000000000000     
  -6.3277000000000000E-002     0.0000000000000000     
  -6.2843999999999997E-002     0.0000000000000000     
  -6.2410999999999994E-002     0.0000000000000000     
  -6.1977999999999991E-002     0.0000000000000000     
  -6.1544999999999996E-002     0.0000000000000000     
  -6.1111999999999993E-002     0.0000000000000000     
  -6.0678999999999997E-002     0.0000000000000000     
  -6.0245999999999994E-002     0.0000000000000000     
  -5.9812999999999991E-002     0.0000000000000000     
  -5.9379999999999995E-002     0.0000000000000000     
  -5.8946999999999992E-002     0.0000000000000000     
  -5.8513999999999997E-002     0.0000000000000000     
  -5.8080999999999994E-002     0.0000000000000000     
  -5.7647999999999991E-002     0.0000000000000000     
  -5.7214999999999988E-002     0.0000000000000000     
  -5.6781999999999999E-002     0.0000000000000000     
  -5.6348999999999996E-002     0.0000000000000000     
  -5.5915999999999993E-002     0.0000000000000000     
  -5.5482999999999991E-002     0.0000000000000000     
  -5.5049999999999988E-002     0.0000000000000000     
  -5.4616999999999999E-002     0.0000000000000000     
  -5.4183999999999996E-002     0.0000000000000000     
  -5.3750999999999993E-002     0.0000000000000000     
  -5.3317999999999990E-002     0.0000000000000000     
  -5.2884999999999988E-002     0.0000000000000000     
  -5.2451999999999999E-002     0.0000000000000000     
  -5.2018999999999996E-002     0.0000000000000000     
  -5.1585999999999993E-002     0.0000000000000000     
  -5.1152999999999990E-002     0.0000000000000000     
  -5.0719999999999987E-002     0.0000000000000000     
  -5.0286999999999998E-002     0.0000000000000000     
  -4.9853999999999996E-002     0.0000000000000000     
  -4.9420999999999993E-002     0.0000000000000000     
  -4.8987999999999990E-002     0.0000000000000000     
  -4.8555000000000001E-002     0.0000000000000000     
  -4.8121999999999998E-002     0.0000000000000000     
  -4.7688999999999995E-002     0.0000000000000000     
  -4.7255999999999992E-002     0.0000000000000000     
  -4.6822999999999990E-002     0.0000000000000000     
  -4.6390000000000001E-002     0.0000000000000000     
  -4.5956999999999998E-002     0.0000000000000000     
  -4.5523999999999995E-002     0.0000000000000000     
  -4.5090999999999992E-002     0.0000000000000000     
  -4.4657999999999989E-002     0.0000000000000000     
  -4.4225000000000000E-002     0.0000000000000000     
  -4.3791999999999998E-002     0.0000000000000000     
  -4.3358999999999995E-002     0.0000000000000000     
  -4.2925999999999992E-002     0.0000000000000000     
  -4.2492999999999989E-002     0.0000000000000000     
  -4.2060000000000000E-002     0.0000000000000000     
  -4.1626999999999997E-002     0.0000000000000000     
  -4.1193999999999995E-002     0.0000000000000000     
  -4.0760999999999992E-002     0.0000000000000000     
  -4.0327999999999989E-002     0.0000000000000000     
  -3.9895000000000000E-002     0.0000000000000000     
  -3.9461999999999997E-002     0.0000000000000000     
  -3.9028999999999994E-002     0.0000000000000000     
  -3.8595999999999991E-002     0.0000000000000000     
  -3.8162999999999989E-002     0.0000000000000000     
  -3.7730000000000000E-002     0.0000000000000000     
  -3.7296999999999997E-002     0.0000000000000000     
  -3.6863999999999994E-002     0.0000000000000000     
  -3.6430999999999991E-002     0.0000000000000000     
  -3.5997999999999988E-002     0.0000000000000000     
  -3.5564999999999999E-002     0.0000000000000000     
  -3.5131999999999997E-002     0.0000000000000000     
  -3.4698999999999994E-002     0.0000000000000000     
  -3.4265999999999991E-002     0.0000000000000000     
  -3.3832999999999988E-002     0.0000000000000000     
  -3.3399999999999999E-002     0.0000000000000000     
  -3.2966999999999996E-002     0.0000000000000000     
  -3.2533999999999993E-002     0.0000000000000000     
  -3.2100999999999991E-002     0.0000000000000000     
  -3.1667999999999988E-002     0.0000000000000000     
  -3.1234999999999999E-002     0.0000000000000000     
  -3.0801999999999996E-002     0.0000000000000000     
  -3.0368999999999993E-002     0.0000000000000000     
  -2.9935999999999990E-002     0.0000000000000000     
  -2.9502999999999988E-002     0.0000000000000000     
  -2.9069999999999999E-002     0.0000000000000000     
  -2.8636999999999996E-002     0.0000000000000000     
  -2.8203999999999993E-002     0.0000000000000000     
  -2.7770999999999990E-002     0.0000000000000000     
  -2.7337999999999987E-002     0.0000000000000000     
  -2.6904999999999998E-002     0.0000000000000000     
  -2.6471999999999996E-002     0.0000000000000000     
  -2.6038999999999993E-002     0.0000000000000000     
  -2.5605999999999990E-002     0.0000000000000000     
  -2.5172999999999987E-002     0.0000000000000000     
  -2.4739999999999998E-002     0.0000000000000000     
  -2.4306999999999995E-002     0.0000000000000000     
  -2.3873999999999992E-002     0.0000000000000000     
  -2.3440999999999990E-002     0.0000000000000000     
  -2.3008000000000001E-002     0.0000000000000000     
  -2.2574999999999998E-002     0.0000000000000000     
  -2.2141999999999995E-002     0.0000000000000000     
  -2.1708999999999992E-002     0.0000000000000000     
  -2.1275999999999989E-002     0.0000000000000000     
  -2.0843000000000000E-002     0.0000000000000000     
  -2.0409999999999998E-002     0.0000000000000000     
  -1.9976999999999995E-002     0.0000000000000000     
  -1.9543999999999992E-002     0.0000000000000000     
  -1.9110999999999989E-002     0.0000000000000000     
  -1.8678000000000000E-002     0.0000000000000000     
  -1.8244999999999997E-002     0.0000000000000000     
  -1.7811999999999995E-002     0.0000000000000000     
  -1.7378999999999992E-002     0.0000000000000000     
  -1.6945999999999989E-002     0.0000000000000000     
  -1.6513000000000000E-002     0.0000000000000000     
  -1.6079999999999997E-002     0.0000000000000000     
  -1.5646999999999994E-002     0.0000000000000000     
  -1.5213999999999991E-002     0.0000000000000000     
  -1.4780999999999989E-002     0.0000000000000000     
  -1.4348000000000000E-002     0.0000000000000000     
  -1.3914999999999997E-002     0.0000000000000000     
  -1.3481999999999994E-002     0.0000000000000000     
  -1.3048999999999991E-002     0.0000000000000000     
  -1.2615999999999988E-002     0.0000000000000000     
  -1.2182999999999999E-002     0.0000000000000000     
  -1.1749999999999997E-002     0.0000000000000000     
  -1.1316999999999994E-002     0.0000000000000000     
  -1.0883999999999991E-002     0.0000000000000000     
  -1.0450999999999988E-002     0.0000000000000000     
  -1.0017999999999999E-002     0.0000000000000000     
  -9.5849999999999963E-003     0.0000000000000000     
  -9.1519999999999935E-003     0.0000000000000000     
  -8.7189999999999906E-003     0.0000000000000000     
  -8.2859999999999878E-003     0.0000000000000000     
  -7.8529999999999989E-003     0.0000000000000000     
  -7.4199999999999960E-003     0.0000000000000000     
  -6.9869999999999932E-003     0.0000000000000000     
  -6.5539999999999904E-003     0.0000000000000000     
  -6.1209999999999876E-003     0.0000000000000000     
  -5.6879999999999986E-003     0.0000000000000000     
  -5.2549999999999958E-003     0.0000000000000000     
  -4.8219999999999930E-003     0.0000000000000000     
  -4.3889999999999901E-003     0.0000000000000000     
  -3.9559999999999873E-003     0.0000000000000000     
  -3.5229999999999984E-003     0.0000000000000000     
  -3.0899999999999955E-003     0.0000000000000000     
  -2.6569999999999927E-003     0.0000000000000000     
  -2.2239999999999899E-003     0.0000000000000000     
  -1.7909999999999870E-003     0.0000000000000000     
  -1.3579999999999981E-003     0.0000000000000000     
  -9.2499999999999527E-004     0.0000000000000000     
  -4.9199999999999244E-004     0.0000000000000000     
  -5.8999999999989616E-005     0.0000000000000000     
   3.7400000000001321E-004     0.0000000000000000     
   8.0700000000000216E-004     0.0000000000000000     
   1.2400000000000050E-003     0.0000000000000000     
   1.6730000000000078E-003     0.0000000000000000     
   2.1060000000000106E-003     0.0000000000000000     
   2.5390000000000135E-003     0.0000000000000000     
   2.9720000000000024E-003     0.0000000000000000     
   3.4050000000000052E-003     0.0000000000000000     
   3.8380000000000081E-003     0.0000000000000000     
   4.2710000000000109E-003     0.0000000000000000     
   4.7040000000000137E-003     0.0000000000000000     
   5.1370000000000027E-003     0.0000000000000000     
   5.5700000000000194E-003     0.0000000000000000     
   6.0030000000000083E-003     0.0000000000000000     
   6.4359999999999973E-003     0.0000000000000000     
   6.8690000000000140E-003     0.0000000000000000     
   7.3020000000000029E-003     0.0000000000000000     
   7.7350000000000196E-003     0.0000000000000000     
   8.1680000000000086E-003     0.0000000000000000     
   8.6009999999999975E-003     0.0000000000000000     
   9.0340000000000142E-003     0.0000000000000000     
   9.4670000000000032E-003     0.0000000000000000     
   9.9000000000000199E-003     0.0000000000000000     
   1.0333000000000009E-002     0.0000000000000000     
   1.0765999999999998E-002     0.0000000000000000     
   1.1199000000000014E-002     0.0000000000000000     
   1.1632000000000003E-002     0.0000000000000000     
   1.2065000000000020E-002     0.0000000000000000     
   1.2498000000000009E-002     0.0000000000000000     
   1.2930999999999998E-002     0.0000000000000000     
   1.3364000000000015E-002     0.0000000000000000     
   1.3797000000000004E-002     0.0000000000000000     
   1.4230000000000020E-002     0.0000000000000000     
   1.4663000000000009E-002     0.0000000000000000     
   1.5095999999999998E-002     0.0000000000000000     
   1.5529000000000015E-002     0.0000000000000000     
   1.5962000000000004E-002     0.0000000000000000     
   1.6395000000000021E-002     0.0000000000000000     
   1.6828000000000010E-002     0.0000000000000000     
   1.7260999999999999E-002     0.0000000000000000     
   1.7694000000000015E-002     0.0000000000000000     
   1.8127000000000004E-002     0.0000000000000000     
   1.8560000000000021E-002     0.0000000000000000     
   1.8993000000000010E-002     0.0000000000000000     
   1.9425999999999999E-002     0.0000000000000000     
   1.9859000000000016E-002     0.0000000000000000     
   2.0292000000000004E-002     0.0000000000000000     
   2.0724999999999993E-002     0.0000000000000000     
   2.1158000000000010E-002     0.0000000000000000     
   2.1590999999999999E-002     0.0000000000000000     
   2.2024000000000016E-002     0.0000000000000000     
   2.2457000000000005E-002     0.0000000000000000     
   2.2889999999999994E-002     0.0000000000000000     
   2.3323000000000010E-002     0.0000000000000000     
   2.3755999999999999E-002     0.0000000000000000     
   2.4189000000000016E-002     0.0000000000000000     
   2.4622000000000005E-002     0.0000000000000000     
   2.5054999999999994E-002     0.0000000000000000     
   2.5488000000000011E-002     0.0000000000000000     
   2.5921000000000000E-002     0.0000000000000000     
   2.6354000000000016E-002     0.0000000000000000     
   2.6787000000000005E-002     0.0000000000000000     
   2.7219999999999994E-002     0.0000000000000000     
   2.7653000000000011E-002     0.0000000000000000     
   2.8086000000000000E-002     0.0000000000000000     
   2.8519000000000017E-002     0.0000000000000000     
   2.8952000000000006E-002     0.0000000000000000     
   2.9384999999999994E-002     0.0000000000000000     
   2.9818000000000011E-002     0.0000000000000000     
   3.0251000000000000E-002     0.0000000000000000     
   3.0684000000000017E-002     0.0000000000000000     
   3.1117000000000006E-002     0.0000000000000000     
   3.1549999999999995E-002     0.0000000000000000     
   3.1983000000000011E-002     0.0000000000000000     
   3.2416000000000000E-002     0.0000000000000000     
   3.2849000000000017E-002     0.0000000000000000     
   3.3282000000000006E-002     0.0000000000000000     
   3.3714999999999995E-002     0.0000000000000000     
   3.4148000000000012E-002     0.0000000000000000     
   3.4581000000000001E-002     0.0000000000000000     
   3.5014000000000017E-002     0.0000000000000000     
   3.5447000000000006E-002     0.0000000000000000     
   3.5879999999999995E-002     0.0000000000000000     
   3.6313000000000012E-002     0.0000000000000000     
   3.6746000000000001E-002     0.0000000000000000     
   3.7179000000000018E-002     0.0000000000000000     
   3.7612000000000007E-002     0.0000000000000000     
   3.8044999999999995E-002     0.0000000000000000     
   3.8478000000000012E-002     0.0000000000000000     
   3.8911000000000001E-002     0.0000000000000000     
   3.9344000000000018E-002     0.0000000000000000     
   3.9777000000000007E-002     0.0000000000000000     
   4.0209999999999996E-002     0.0000000000000000     
   4.0643000000000012E-002     0.0000000000000000     
   4.1076000000000001E-002     0.0000000000000000     
   4.1509000000000018E-002     0.0000000000000000     
   4.1942000000000007E-002     0.0000000000000000     
   4.2374999999999996E-002     0.0000000000000000     
   4.2808000000000013E-002     0.0000000000000000     
   4.3241000000000002E-002     0.0000000000000000     
   4.3674000000000018E-002     0.0000000000000000     
   4.4107000000000007E-002     0.0000000000000000     
   4.4539999999999996E-002     0.0000000000000000     
   4.4973000000000013E-002     0.0000000000000000     
   4.5406000000000002E-002     0.0000000000000000     
   4.5839000000000019E-002     0.0000000000000000     
   4.6272000000000008E-002     0.0000000000000000     
   4.6704999999999997E-002     0.0000000000000000     
   4.7138000000000013E-002     0.0000000000000000     
   4.7571000000000002E-002     0.0000000000000000     
   4.8004000000000019E-002     0.0000000000000000     
   4.8437000000000008E-002     0.0000000000000000     
   4.8869999999999997E-002     0.0000000000000000     
   4.9303000000000013E-002     0.0000000000000000     
   4.9736000000000002E-002     0.0000000000000000     
   5.0169000000000019E-002     0.0000000000000000     
   5.0602000000000008E-002     0.0000000000000000     
   5.1034999999999997E-002     0.0000000000000000     
   5.1468000000000014E-002     0.0000000000000000     
   5.1901000000000003E-002     0.0000000000000000     
   5.2334000000000019E-002     0.0000000000000000     
   5.2767000000000008E-002     0.0000000000000000     
   5.3199999999999997E-002     0.0000000000000000     
   5.3633000000000014E-002     0.0000000000000000     
   5.4066000000000003E-002     0.0000000000000000     
   5.4499000000000020E-002     0.0000000000000000     
   5.4932000000000009E-002     0.0000000000000000     
   5.5364999999999998E-002     0.0000000000000000     
   5.5798000000000014E-002     0.0000000000000000     
   5.6231000000000003E-002     0.0000000000000000     
   5.6664000000000020E-002     0.0000000000000000     
   5.7097000000000009E-002     0.0000000000000000     
   5.7529999999999998E-002     0.0000000000000000     
   5.7963000000000015E-002     0.0000000000000000     
   5.8396000000000003E-002     0.0000000000000000     
   5.8829000000000020E-002     0.0000000000000000     
   5.9262000000000009E-002     0.0000000000000000     
   5.9694999999999998E-002     0.0000000000000000     
   6.0128000000000015E-002     0.0000000000000000     
   6.0561000000000004E-002     0.0000000000000000     
   6.0994000000000020E-002     0.0000000000000000     
   6.1427000000000009E-002     0.0000000000000000     
   6.1859999999999998E-002     0.0000000000000000     
   6.2293000000000015E-002     0.0000000000000000     
   6.2726000000000004E-002     0.0000000000000000     
   6.3159000000000021E-002     0.0000000000000000     
   6.3592000000000010E-002     0.0000000000000000     
   6.4024999999999999E-002     0.0000000000000000     
   6.4458000000000015E-002     0.0000000000000000     
   6.4891000000000004E-002     0.0000000000000000     
   6.5324000000000021E-002     0.0000000000000000     
   6.5757000000000010E-002     0.0000000000000000     
   6.6189999999999999E-002     0.0000000000000000     
   6.6623000000000016E-002     0.0000000000000000     
   6.7056000000000004E-002     0.0000000000000000     
   6.7489000000000021E-002     0.0000000000000000     
   6.7922000000000010E-002     0.0000000000000000     
   6.8354999999999999E-002     0.0000000000000000     
   6.8788000000000016E-002     0.0000000000000000     
   6.9221000000000005E-002     0.0000000000000000     
   6.9654000000000021E-002     0.0000000000000000     
   7.0087000000000010E-002     0.0000000000000000     
   7.0519999999999999E-002     0.0000000000000000     
   7.0953000000000016E-002     0.0000000000000000     
   7.1386000000000005E-002     0.0000000000000000     
   7.1819000000000022E-002     0.0000000000000000     
   7.2252000000000011E-002     0.0000000000000000     
   7.2685000000000000E-002     0.0000000000000000     
   7.3118000000000016E-002     0.0000000000000000     
   7.3551000000000005E-002     0.0000000000000000     
   7.3983999999999994E-002     0.0000000000000000     
   7.4417000000000011E-002     0.0000000000000000     
   7.4850000000000000E-002     0.0000000000000000     
   7.5283000000000017E-002     0.0000000000000000     
   7.5716000000000006E-002     0.0000000000000000     
   7.6148999999999994E-002     0.0000000000000000     
   7.6582000000000011E-002     0.0000000000000000     
   7.7015000000000000E-002     0.0000000000000000     
   7.7448000000000017E-002     0.0000000000000000     
   7.7881000000000006E-002     0.0000000000000000     
   7.8313999999999995E-002     0.0000000000000000     
   7.8747000000000011E-002     0.0000000000000000     
   7.9180000000000000E-002     0.0000000000000000     
   7.9613000000000017E-002     0.0000000000000000     
   8.0046000000000006E-002     0.0000000000000000     
   8.0478999999999995E-002     0.0000000000000000     
   8.0912000000000012E-002     0.0000000000000000     
   8.1345000000000001E-002     0.0000000000000000     
   8.1778000000000017E-002     0.0000000000000000     
   8.2211000000000006E-002     0.0000000000000000     
   8.2643999999999995E-002     0.0000000000000000     
   8.3077000000000012E-002     0.0000000000000000     
   8.3510000000000001E-002     0.0000000000000000     
   8.3943000000000018E-002     0.0000000000000000     
   8.4376000000000007E-002     0.0000000000000000     
   8.4808999999999996E-002     0.0000000000000000     
   8.5242000000000012E-002     0.0000000000000000     
   8.5675000000000001E-002     0.0000000000000000     
   8.6108000000000018E-002     0.0000000000000000     
   8.6541000000000007E-002     0.0000000000000000     
   8.6973999999999996E-002     0.0000000000000000     
   8.7407000000000012E-002     0.0000000000000000     
   8.7840000000000001E-002     0.0000000000000000     
   8.8273000000000018E-002     0.0000000000000000     
   8.8706000000000007E-002     0.0000000000000000     
   8.9138999999999996E-002     0.0000000000000000     
   8.9572000000000013E-002     0.0000000000000000     
   9.0005000000000002E-002     0.0000000000000000     
   9.0438000000000018E-002     0.0000000000000000     
   9.0871000000000007E-002     0.0000000000000000     
   9.1303999999999996E-002     0.0000000000000000     
   9.1737000000000013E-002     0.0000000000000000     
   9.2170000000000002E-002     0.0000000000000000     
   9.2603000000000019E-002     0.0000000000000000     
   9.3036000000000008E-002     0.0000000000000000     
   9.3468999999999997E-002     0.0000000000000000     
   9.3902000000000013E-002     0.0000000000000000     
   9.4335000000000002E-002     0.0000000000000000     
   9.4768000000000019E-002     0.0000000000000000     
   9.5201000000000008E-002     0.0000000000000000     
   9.5633999999999997E-002     0.0000000000000000     
   9.6067000000000013E-002     0.0000000000000000     
   9.6500000000000002E-002     0.0000000000000000     
   9.6933000000000019E-002     0.0000000000000000     
   9.7366000000000008E-002     0.0000000000000000     
   9.7798999999999997E-002     0.0000000000000000     
   9.8232000000000014E-002     0.0000000000000000     
   9.8665000000000003E-002     0.0000000000000000     
   9.9098000000000019E-002     0.0000000000000000     
   9.9531000000000008E-002     0.0000000000000000     
   9.9963999999999997E-002     0.0000000000000000     
  0.10039700000000001          0.0000000000000000     
  0.10083000000000000          0.0000000000000000     
  0.10126300000000002          0.0000000000000000     
  0.10169600000000001          0.0000000000000000     
  0.10212900000000000          0.0000000000000000     
  0.10256200000000001          0.0000000000000000     
  0.10299500000000000          0.0000000000000000     
  0.10342800000000002          0.0000000000000000     
  0.10386100000000001          0.0000000000000000     
  0.10429400000000000          0.0000000000000000     
  0.10472700000000001          0.0000000000000000     
  0.10516000000000000          0.0000000000000000     
  0.10559300000000002          0.0000000000000000     
  0.10602600000000001          0.0000000000000000     
  0.10645900000000000          0.0000000000000000     
  0.10689200000000001          0.0000000000000000     
  0.10732500000000000          0.0000000000000000     
  0.10775800000000002          0.0000000000000000     
  0.10819100000000001          0.0000000000000000     
  0.10862400000000000          0.0000000000000000     
  0.10905700000000002          0.0000000000000000     
  0.10949000000000000          0.0000000000000000     
  0.10992300000000002          0.0000000000000000     
  0.11035600000000001          0.0000000000000000     
  0.11078900000000000          0.0000000000000000     
  0.11122200000000002          0.0000000000000000     
  0.11165500000000000          0.0000000000000000     
  0.11208800000000002          0.0000000000000000     
  0.11252100000000001          0.0000000000000000     
  0.11295400000000000          0.0000000000000000     
  0.11338700000000002          0.0000000000000000     
  0.11382000000000000          0.0000000000000000     
  0.11425300000000002          0.0000000000000000     
  0.11468600000000001          0.0000000000000000     
  0.11511900000000000          0.0000000000000000     
  0.11555200000000002          0.0000000000000000     